data_LTA4A

_audit_creation_method RASPA-1.0
_audit_creation_date 2011-2-20
_audit_author_name 'David Dubbeldam'

_citation_author_name        'J.J. Pluth and J.V. Smith'
_citation_title              'Accurate redetermination of crystal structure of dehydrated zeolite A. Absence of near zero coordination of sodium. Refinement of silicon,aluminum-ordered superstructure'
_citation_journal_abbrev     'J. Am. Chem. Soc.'
_citation_journal_volume     102
_citation_journal_issue      14
_citation_page_first         4704
_citation_page_last          4708
_citation_year               1980

_cell_length_a    24.555
_cell_length_b    24.555
_cell_length_c    24.555
_cell_angle_alpha 90
_cell_angle_beta  90
_cell_angle_gamma 90
_cell_volume      14805.4

_symmetry_cell_setting          cubic
_symmetry_space_group_name_Hall '-F 4a 2 3'
_symmetry_space_group_name_H-M  'F m -3 c'
_symmetry_Int_Tables_number     226

loop_
_atom_site_label
_atom_site_type_symbol
_atom_site_fract_x
_atom_site_fract_y
_atom_site_fract_z
Si1      Si     0         0.09316   0.18499 
Al1      Al     0         0.18715   0.09042 
O1       O      0         0.11367   0.24663 
O2       O      0         0.14459   0.14591 
O3       O      0.05379   0.05865   0.17152 


